16
Lattice="6.320672 0.06245596 0.0 -3.10624756 5.38017801 0.0 0.0 0.0 10.18506786" Properties=species:S:1:pos:R:3:forces:R:3 config_type=Default energy=-33.03975702 energy_corrected=-33.03975702 stress="0.00019480522056560518 -8.548057575051591e-05 -0.0 -8.548057575051591e-05 0.00029350963801056616 -0.0 -0.0 -0.0 0.0001703797299599193" pbc="T T T"
Mg       0.01984737       1.80484801       6.36566741       0.00077042       0.00044480       0.00000000
Mg      -1.53676673       4.49292187       6.36566741       0.00304149       0.00175600       0.00000000
Mg       3.17771261       1.81986014       1.27313348      -0.00859352      -0.01626972       0.00000000
Mg       3.16955023       1.83620180       6.36566741      -0.01315644      -0.00363003       0.00000000
Mg       1.61178090       4.53213312       1.27313348      -0.01838676       0.00069266       0.00000000
Mg       1.62185201       4.51689346       6.36566741      -0.00972192      -0.00957880       0.00000000
Mg       1.57122844       0.92269474       3.75885460       0.00397546       0.00246367      -0.04942085
Mg       1.57122844       0.92269474       8.97248023       0.00397546       0.00246367       0.04942085
Mg       0.03156450       3.58947062       3.75885460       0.00412133       0.00221101      -0.04942085
Mg       0.03156450       3.58947062       8.97248023       0.00412133       0.00221101       0.04942085
Mg       4.77693208       0.96457369       3.79431157       0.01232883       0.00711805      -0.00924416
Mg       4.77693208       0.96457369       8.93702326       0.01232883       0.00711805       0.00924416
Mg       3.20990591       3.64663611       3.78171060       0.01790246       0.01033599      -0.04241419
Mg       3.20990591       3.64663611       8.94962422       0.01790246       0.01033599       0.04241419
Ti      -0.00557259       1.79017171       1.27313348      -0.03684476      -0.02127233       0.00000000
Ga      -1.52227036       4.50129132       1.27313348       0.00623534       0.00359997       0.00000000
16
Lattice="6.32278459 0.06323574 0.0 -3.10662854 5.3808379 0.0 0.0 0.0 10.18848553" Properties=species:S:1:pos:R:3:forces:R:3 config_type=Default energy=-33.03731903 energy_corrected=-33.03731903 stress="7.138474529911204e-05 0.0008425286029488917 -0.0 0.0008425286029488917 -0.0009014833890653163 -0.0 -0.0 -0.0 -0.0002629527884320505" pbc="T T T"
Mg       0.01986828       1.80508000       6.36780346       0.00514601       0.00297105       0.00000000
Mg      -1.53639164       4.49379824       6.36780346      -0.00842408      -0.00486364       0.00000000
Mg       3.17963712       1.82063712       1.27356069      -0.01562371      -0.00809354       0.00000000
Mg       3.17174567       1.83669910       6.36780346      -0.02195963       0.00472458       0.00000000
Mg       1.61322558       4.53374120       1.27356069      -0.01482106      -0.00948376       0.00000000
Mg       1.62318991       4.51887606       6.36780346      -0.00688820      -0.02137988       0.00000000
Mg       1.57209613       0.92234140       3.76440628      -0.00632977       0.01689176      -0.10012313
Mg       1.57209613       0.92234140       8.97120063      -0.00632977       0.01689176       0.10012313
Mg       0.03150186       3.59072867       3.76440628       0.01146381      -0.01392763      -0.10012313
Mg       0.03150186       3.59072867       8.97120063       0.01146381      -0.01392763       0.10012313
Mg       4.77776430       0.96483414       3.79641606       0.02265571       0.01308028      -0.02441603
Mg       4.77776430       0.96483414       8.93919086       0.02265571       0.01308028       0.02441603
Mg       3.21007487       3.64695362       3.78635360       0.02972486       0.01716165      -0.07770820
Mg       3.21007487       3.64695362       8.94925331       0.02972486       0.01716165       0.07770820
Ti      -0.00263328       1.79208876       1.27356069      -0.05379895      -0.03106083       0.00000000
Ga      -1.52226743       4.50195286       1.27356069       0.00134040       0.00077388       0.00000000
16
Lattice="6.321397 0.06390577 0.0 -3.10535448 5.37863116 0.0 0.0 0.0 10.18768304" Properties=species:S:1:pos:R:3:forces:R:3 config_type=Default energy=-33.03450136 energy_corrected=-33.03450136 stress="-0.001306938331776711 -0.00023113829348919682 -0.0 -0.00023113829348919682 -0.001040042576060039 -0.0 -0.0 -0.0 -0.0011813809447892801" pbc="T T T"
Mg       0.01989712       1.80436108       6.36730190       0.00514820       0.00297231       0.00000000
Mg      -1.53556801       4.49206707       6.36730190      -0.00020539      -0.00011858       0.00000000
Mg       3.18012243       1.82228520       1.27346038      -0.01256209      -0.01618104       0.00000000
Mg       3.17266942       1.83665462       6.36730190      -0.01957439      -0.00284948       0.00000000
Mg       1.61553252       4.53223413       1.27346038      -0.02029424      -0.00278857       0.00000000
Mg       1.62425030       4.51859492       6.36730190      -0.01225492      -0.01552718       0.00000000
Mg       1.57193692       0.92182755       3.76923510      -0.00182902       0.00769486      -0.07415811
Mg       1.57193692       0.92182755       8.96536870      -0.00182902       0.00769486       0.07415811
Mg       0.03161430       3.58974430       3.76923510       0.00574943      -0.00543140      -0.07415811
Mg       0.03161430       3.58974430       8.96536870       0.00574943      -0.00543140       0.07415811
Mg       4.77488274       0.96390608       3.79790304       0.02298673       0.01327139      -0.01965058
Mg       4.77488274       0.96390608       8.93670076       0.02298673       0.01327139       0.01965058
Mg       3.20830564       3.64519657       3.78986689       0.02195421       0.01267527      -0.05765379
Mg       3.20830564       3.64519657       8.94473691       0.02195421       0.01267527       0.05765379
Ti       0.00070655       1.79328140       1.27346038      -0.05298403      -0.03059034       0.00000000
Ga      -1.52274925       4.49946795       1.27346038       0.01500415       0.00866265       0.00000000
16
Lattice="6.31785263 0.06103358 0.0 -3.10606969 5.37986993 0.0 0.0 0.0 10.18445246" Properties=species:S:1:pos:R:3:forces:R:3 config_type=Default energy=-33.03032851 energy_corrected=-33.03032851 stress="-0.0015455601385342599 -0.0003789538007968416 -0.0 -0.0003789538007968416 -0.001107981702487716 -0.0 -0.0 -0.0 -0.001365137957703995" pbc="T T T"
Mg       0.01883514       1.80416086       6.36528279       0.00539664       0.00311575       0.00000000
Mg      -1.53662268       4.49269696       6.36528279      -0.00212285      -0.00122563       0.00000000
Mg       3.17849993       1.82240064       1.27305656      -0.01731049      -0.02964180       0.00000000
Mg       3.17173908       1.83527553       6.36528279      -0.03221623      -0.00268283       0.00000000
Mg       1.61446364       4.53139067       1.27305656      -0.03432580      -0.00017043       0.00000000
Mg       1.62223323       4.51909810       6.36528279      -0.01843151      -0.02655866       0.00000000
Mg       1.57106992       0.92045586       3.77463795      -0.00759623       0.01157917      -0.11748278
Mg       1.57106992       0.92045586       8.95592762      -0.00759623       0.01157917       0.11748278
Mg       0.02963525       3.59029873       3.77463795       0.00622974      -0.01236811      -0.11748278
Mg       0.02963525       3.59029873       8.95592762       0.00622974      -0.01236811       0.11748278
Mg       4.76942009       0.96033926       3.79870697       0.04310960       0.02488933      -0.03644596
Mg       4.76942009       0.96033926       8.93185861       0.04310960       0.02488933       0.03644596
Mg       3.20327002       3.64270218       3.79352084       0.02794404       0.01613350      -0.08653195
Mg       3.20327002       3.64270218       8.93704473       0.02794404       0.01613350       0.08653195
Ti       0.00351288       1.79531452       1.27305656      -0.06272564      -0.03621466       0.00000000
Ga      -1.52518820       4.49929863       1.27305656       0.02236160       0.01291047       0.00000000
16
Lattice="6.33546009 0.05730956 0.0 -3.11809852 5.40070447 0.0 0.0 0.0 10.2156358" Properties=species:S:1:pos:R:3:forces:R:3 config_type=Default energy=-33.02153995 energy_corrected=-33.02153995 stress="-0.0017350932562053773 -0.0005592659250966897 -0.0 -0.0005592659250966897 -0.0010893082993113166 -0.0 -0.0 -0.0 -0.0016172249528308685" pbc="T T T"
Mg       0.01743127       1.81029513       6.38477237       0.00344751       0.00199042      -0.00000000
Mg      -1.54360122       4.50950239       6.38477237      -0.00126174      -0.00072847      -0.00000000
Mg       3.18706548       1.82843169       1.27695447      -0.01166517      -0.02442433      -0.00000000
Mg       3.18112366       1.83974211       6.38477237      -0.02169817      -0.00228405      -0.00000000
Mg       1.61795508       4.54621032       1.27695447      -0.02698467       0.00210983      -0.00000000
Mg       1.62477926       4.53540940       6.38477237      -0.01282713      -0.01764914      -0.00000000
Mg       1.57593596       0.92211197       3.79301919      -0.02315378       0.01377870      -0.12469139
Mg       1.57593596       0.92211197       8.97652556      -0.02315378       0.01377870       0.12469139
Mg       0.02748808       3.60410208       3.79301919       0.00035582      -0.02694111      -0.12469139
Mg       0.02748808       3.60410208       8.97652556       0.00035582      -0.02694111       0.12469139
Mg       4.77932857       0.95911513       3.81290097       0.04882393       0.02818851      -0.04453175
Mg       4.77932857       0.95911513       8.95664378       0.04882393       0.02818851       0.04453175
Mg       3.20841270       3.65261617       3.80976763       0.02654544       0.01532601      -0.08619631
Mg       3.20841270       3.65261617       8.95977712       0.02654544       0.01532601       0.08619631
Ti       0.00550702       1.80341074       1.27695447      -0.06022759      -0.03477241      -0.00000000
Ga      -1.53369867       4.51521963       1.27695447       0.02607413       0.01505390      -0.00000000
16
Lattice="6.34903397 0.0557429 0.0 -3.12624222 5.41480978 0.0 0.0 0.0 10.23914291" Properties=species:S:1:pos:R:3:forces:R:3 config_type=Default energy=-33.01154616 energy_corrected=-33.01154616 stress="0.0032859914391780397 -0.0006403062974965613 -0.0 -0.0006403062974965613 0.004025352683513581 -0.0 -0.0 -0.0 0.0035732977286495175" pbc="T T T"
Mg       0.01690749       1.81469453       6.39946432       0.00525063       0.00303145      -0.00000000
Mg      -1.54808510       4.52101892       6.39946432      -0.00109658      -0.00063311      -0.00000000
Mg       3.19362094       1.83245885       1.27989286      -0.01257711      -0.02857439      -0.00000000
Mg       3.18779210       1.84334662       6.39946432      -0.02464865       0.00022572      -0.00000000
Mg       1.62064860       4.55692657       1.27989286      -0.03103471       0.00339510      -0.00000000
Mg       1.62716323       4.54643482       6.39946432      -0.01212885      -0.02145922      -0.00000000
Mg       1.57951825       0.92378572       3.80365698      -0.02816255       0.01377812      -0.13565194
Mg       1.57951825       0.92378572       8.99527166      -0.02816255       0.01377812       0.13565194
Mg       0.02665687       3.61342023       3.80365698      -0.00214907      -0.03127854      -0.13565194
Mg       0.02665687       3.61342023       8.99527166      -0.00214907      -0.03127854       0.13565194
Mg       4.78847386       0.95969336       3.82249383       0.05566163       0.03213625      -0.05210889
Mg       4.78847386       0.95969336       8.97643481       0.05566163       0.03213625       0.05210889
Mg       3.21390309       3.66048786       3.81962697       0.02846398       0.01643369      -0.08727000
Mg       3.21390309       3.66048786       8.97930167       0.02846398       0.01643369       0.08727000
Ti       0.00591658       1.80834896       1.27989286      -0.06249614      -0.03608216      -0.00000000
Ga      -1.53873384       4.52641783       1.27989286       0.03110342       0.01795757      -0.00000000
16
Lattice="6.36254281 0.05418375 0.0 -3.13434691 5.4288475 0.0 0.0 0.0 10.26253736" Properties=species:S:1:pos:R:3:forces:R:3 config_type=Default energy=-33.00025945 energy_corrected=-33.00025945 stress="0.007320454092098559 -0.0009153475471809856 -0.0 -0.0009153475471809856 0.008377404716652322 -0.0 -0.0 -0.0 0.00785138427105427" pbc="T T T"
Mg       0.01638612       1.81907275       6.41408585       0.00559034       0.00322758       0.00000000
Mg      -1.55254742       4.53248031       6.41408585      -0.00323473      -0.00186757       0.00000000
Mg       3.20014530       1.83646764       1.28281717      -0.01618597      -0.03015775       0.00000000
Mg       3.19442938       1.84693359       6.41408585      -0.02601402       0.00434052       0.00000000
Mg       1.62333012       4.56759134       1.28281717      -0.03421037       0.00106142       0.00000000
Mg       1.62953594       4.55740823       6.41408585      -0.00924801      -0.02469906       0.00000000
Mg       1.58308431       0.92545088       3.81424822      -0.03437474       0.01269948      -0.14574283
Mg       1.58308431       0.92545088       9.01392348      -0.03437474       0.01269948       0.14574283
Mg       0.02582962       3.62269482       3.81424822      -0.00618929      -0.03611913      -0.14574283
Mg       0.02582962       3.62269482       9.01392348      -0.00618929      -0.03611913       0.14574283
Mg       4.79757357       0.96026792       3.83204264       0.06469486       0.03735159      -0.06250604
Mg       4.79757357       0.96026792       8.99612906       0.06469486       0.03735159       0.06250604
Mg       3.21936635       3.66832133       3.82944160       0.03107173       0.01793927      -0.08339333
Mg       3.21936635       3.66832133       8.99873010       0.03107173       0.01793927       0.08339333
Ti       0.00632592       1.81326449       1.28281717      -0.06744377      -0.03893867       0.00000000
Ga      -1.54374600       4.53756181       1.28281717       0.04034138       0.02329111       0.00000000
16
Lattice="6.34033713 0.03896184 0.0 -3.13642663 5.43244969 0.0 0.0 0.0 10.28170744" Properties=species:S:1:pos:R:3:forces:R:3 config_type=Default energy=-32.99376876 energy_corrected=-32.99376876 stress="0.005650848391158849 -0.0016011610559634002 -0.0 -0.0016011610559634002 0.007499708524020425 -0.0 -0.0 -0.0 0.008454410945802262" pbc="T T T"
Mg       0.01180967       1.81763126       6.42606715       0.00743414       0.00429210       0.00000000
Mg      -1.55783226       4.53303126       6.42606715      -0.00400718      -0.00231355       0.00000000
Mg       3.18410991       1.83019456       1.28521343      -0.00378178      -0.03881059       0.00000000
Mg       3.18005037       1.83801927       6.42606715      -0.02236065       0.00668592       0.00000000
Mg       1.60883989       4.55864198       1.28521343      -0.03550185       0.01613018       0.00000000
Mg       1.61358659       4.55121384       6.42606715      -0.00539015      -0.02270785       0.00000000
Mg       1.57921194       0.91986330       3.83207719      -0.05666127       0.01773532      -0.17160627
Mg       1.57921194       0.91986330       9.02005711      -0.05666127       0.01773532       0.17160627
Mg       0.01801459       3.62393614       3.83207719      -0.01297140      -0.05793775      -0.17160627
Mg       0.01801459       3.62393614       9.02005711      -0.01297140      -0.05793775       0.17160627
Mg       4.77360967       0.94523160       3.84374333       0.07963418       0.04597681      -0.07622212
Mg       4.77360967       0.94523160       9.00839097       0.07963418       0.04597681       0.07622212
Mg       3.19757748       3.65694218       3.84342583       0.03191697       0.01842727      -0.10263077
Mg       3.19757748       3.65694218       9.00870847       0.03191697       0.01842727       0.10263077
Ti       0.00562535       1.81406070       1.28521343      -0.06628110      -0.03826741       0.00000000
Ga      -1.55173276       4.53655288       1.28521343       0.04605162       0.02658792       0.00000000
16
Lattice="6.32159566 0.02611463 0.0 -3.1381819 5.43548991 0.0 0.0 0.0 10.29788688" Properties=species:S:1:pos:R:3:forces:R:3 config_type=Default energy=-32.98295904 energy_corrected=-32.98295904 stress="-0.002317847228444591 -0.001968602386936041 -0.0 -0.001968602386936041 -4.4700745891697896e-05 -0.0 -0.0 -0.0 0.0021889987873177186" pbc="T T T"
Mg       0.00794791       1.81641504       6.43617930       0.00333727       0.00192677       0.00000000
Mg      -1.56229324       4.53349593       6.43617930      -0.00308059      -0.00177858       0.00000000
Mg       3.17057235       1.82489955       1.28723586       0.01118991      -0.04838503       0.00000000
Mg       3.16791115       1.83049338       6.43617930      -0.01883336       0.00071132       0.00000000
Mg       1.59660787       4.55108571       1.28723586      -0.03630772       0.03388326       0.00000000
Mg       1.60012170       4.54598408       6.43617930      -0.00880065      -0.01666583       0.00000000
Mg       1.57593473       0.91514041       3.84714163      -0.07109860       0.01954724      -0.19104947
Mg       1.57593473       0.91514041       9.02521697      -0.07109860       0.01954724       0.19104947
Mg       0.01140820       3.62497955       3.84714163      -0.01862089      -0.07134680      -0.19104947
Mg       0.01140820       3.62497955       9.02521697      -0.01862089      -0.07134680       0.19104947
Mg       4.75340488       0.93255295       3.85362580       0.09111603       0.05260586      -0.08285992
Mg       4.75340488       0.93255295       9.01873280       0.09111603       0.05260586       0.08285992
Mg       3.17919539       3.64734272       3.85523907       0.03398155       0.01961926      -0.11926719
Mg       3.17919539       3.64734272       9.01711953       0.03398155       0.01961926       0.11926719
Ti       0.00501904       1.81472406       1.28723586      -0.06279852      -0.03625674       0.00000000
Ga      -1.55846316       4.53570726       1.28723586       0.04453746       0.02571371       0.00000000
16
Lattice="6.33160729 0.02042479 0.0 -3.14811526 5.452695 0.0 0.0 0.0 10.34167893" Properties=species:S:1:pos:R:3:forces:R:3 config_type=Default energy=-32.95866035 energy_corrected=-32.95866035 stress="0.0018797334144697562 -0.002100769669400983 -0.0 -0.002100769669400983 0.004305492622002939 -0.0 -0.0 -0.0 0.007316348340014426" pbc="T T T"
Mg       0.00621700       1.82115075       6.46354933       0.00453702       0.00261945       0.00000000
Mg      -1.56874048       4.54697873       6.46354933      -0.00356077      -0.00205581       0.00000000
Mg       3.17345049       1.82778424       1.29270987       0.01591443      -0.05672036       0.00000000
Mg       3.17136750       1.83216227       6.46354933      -0.01579681       0.00554369       0.00000000
Mg       1.59557851       4.56073839       1.29270987      -0.04116406       0.04214248       0.00000000
Mg       1.59832851       4.55674545       6.46354933      -0.00309743      -0.01645228       0.00000000
Mg       1.57940725       0.91599982       3.86672655      -0.08676334       0.01931929      -0.20982391
Mg       1.57940725       0.91599982       9.06037211      -0.08676334       0.01931929       0.20982391
Mg       0.00892204       3.63615971       3.86672655      -0.02665067      -0.08479889      -0.20982391
Mg       0.00892204       3.63615971       9.06037211      -0.02665067      -0.08479889       0.20982391
Mg       4.75825458       0.92961787       3.87180266       0.10396382       0.06002353      -0.09513445
Mg       4.75825458       0.92961787       9.05529600       0.10396382       0.06002353       0.09513445
Mg       3.18019271       3.65365353       3.87306569       0.03763826       0.02173046      -0.11606152
Mg       3.18019271       3.65365353       9.05403297       0.03763826       0.02173046       0.11606152
Ti       0.00392573       1.81982785       1.29270987      -0.05936371      -0.03427365       0.00000000
Ga      -1.56574417       4.54870864       1.29270987       0.04615519       0.02664771       0.00000000
16
Lattice="6.367546 0.0 0.0 -3.183773 5.514456 0.0 0.0 0.0 10.498879" Properties=species:S:1:pos:R:3:forces:R:3 config_type=Default energy=-32.81890967 energy_corrected=-32.81890967 stress="0.0050776369498750345 -0.002885737146564659 -0.0 -0.002885737146564659 0.008409797724593037 -0.0 -0.0 -0.0 0.013470418710281557" pbc="T T T"
Mg       0.00000318       1.83815016       6.56179938       0.00661024       0.00381642       0.00000000
Mg      -1.59188332       4.59537816       6.56179938      -0.01211226      -0.00699302       0.00000000
Mg       3.18377618       1.83815016       1.31235988       0.03665981      -0.07116575       0.00000000
Mg       3.18377618       1.83815016       6.56179938      -0.00705841       0.02058204       0.00000000
Mg       1.59188968       4.59537816       1.31235988      -0.04330144       0.06733120       0.00000000
Mg       1.59188968       4.59537816       6.56179938       0.01429536      -0.01640378       0.00000000
Mg       1.59188332       0.91907784       3.93707962      -0.13426724       0.00895601      -0.23996144
Mg       1.59188332       0.91907784       9.18651913      -0.13426724       0.00895601       0.23996144
Mg      -0.00000318       3.67630584       3.93707962      -0.05937748      -0.12075683      -0.23996144
Mg      -0.00000318       3.67630584       9.18651913      -0.05937748      -0.12075683       0.23996144
Mg       4.77565632       0.91907784       3.93707962       0.13741599       0.07933715      -0.13314081
Mg       4.77565632       0.91907784       9.18651913       0.13741599       0.07933715       0.13314081
Mg       3.18376982       3.67630584       3.93707962       0.05409804       0.03123351      -0.10656277
Mg       3.18376982       3.67630584       9.18651913       0.05409804       0.03123351       0.10656277
Ti       0.00000318       1.83815016       1.31235988      -0.04106506      -0.02370892       0.00000000
Ga      -1.59188332       4.59537816       1.31235988       0.05023314       0.02900211       0.00000000
32
Lattice="8.49546175 0.0 0.0 0.0 8.53714399 0.0 0.0 0.0 4.22936451" Properties=species:S:1:pos:R:3:forces:R:3 config_type=Default energy=-194.74510091 energy_corrected=-207.73610091 stress="-0.0026193880097342137 -0.0 -0.0 -0.0 -0.002455321048209868 -0.0 -0.0 -0.0 -0.002575489353938774" pbc="T T T"
Li       0.00000000       0.00000000       0.00000000      -0.00000000       0.00000000       0.00000000
Mg       4.24773088       0.00000000       0.00000000      -0.00000000       0.00000000       0.00000000
Mg       4.24773088       4.26857200       0.00000000      -0.00000000       0.00000000       0.00000000
Mg       0.00000000       2.04486667       2.11468225      -0.00000000      -0.01679447       0.00000000
Mg       0.00000000       6.49227732       2.11468225      -0.00000000       0.01679447      -0.00000000
Mg       4.24773088       2.11221577       2.11468225      -0.00000000      -0.00214556       0.00000000
Mg       4.24773088       6.42492822       2.11468225      -0.00000000       0.00214556      -0.00000000
Mg       2.07517523       0.00000000       2.11468225       0.01275293       0.00000000       0.00000000
Mg       2.13857796       4.26857200       2.11468225       0.00138572       0.00000000       0.00000000
Mg       6.42028652       0.00000000       2.11468225      -0.01275293       0.00000000      -0.00000000
Mg       6.35688379       4.26857200       2.11468225      -0.00138572       0.00000000      -0.00000000
Mg       2.11086058       2.07472380       0.00000000      -0.00386700      -0.00075035       0.00000000
Mg       2.11086058       6.46242019       0.00000000      -0.00386700       0.00075035       0.00000000
Mg       6.38460117       2.07472380       0.00000000       0.00386700      -0.00075035       0.00000000
Mg       6.38460117       6.46242019       0.00000000       0.00386700       0.00075035      -0.00000000
Cr       0.00000000       4.26857200       0.00000000      -0.00000000       0.00000000       0.00000000
O        2.17223885       0.00000000       0.00000000       0.01580445       0.00000000       0.00000000
O        2.05469751       4.26857200       0.00000000       0.02659503       0.00000000       0.00000000
O        6.32322290       0.00000000       0.00000000      -0.01580445       0.00000000       0.00000000
O        6.44076424       4.26857200       0.00000000      -0.02659503       0.00000000       0.00000000
O        2.11666681       2.15102571       2.11468225      -0.00059326      -0.00124869       0.00000000
O        2.11666681       6.38611828       2.11468225      -0.00059326       0.00124869      -0.00000000
O        6.37879494       2.15102571       2.11468225       0.00059326      -0.00124869       0.00000000
O        6.37879494       6.38611828       2.11468225       0.00059326       0.00124869       0.00000000
O        0.00000000       0.00000000       2.11468225      -0.00000000       0.00000000       0.00000000
O        0.00000000       4.26857200       2.11468225      -0.00000000       0.00000000       0.00000000
O        4.24773088       0.00000000       2.11468225      -0.00000000       0.00000000       0.00000000
O        4.24773088       4.26857200       2.11468225      -0.00000000       0.00000000       0.00000000
O        0.00000000       2.26519866       0.00000000      -0.00000000      -0.02245330       0.00000000
O        0.00000000       6.27194533       0.00000000      -0.00000000       0.02245330       0.00000000
O        4.24773088       2.17416488       0.00000000      -0.00000000      -0.00201797      -0.00000000
O        4.24773088       6.36297911       0.00000000      -0.00000000       0.00201797       0.00000000
32
Lattice="8.49575894 0.0 0.0 0.0 8.53812871 0.0 -0.0 0.0 4.22991405" Properties=species:S:1:pos:R:3:forces:R:3 config_type=Default energy=-194.74295344 energy_corrected=-207.73395344000002 stress="0.0011482028611061856 -0.0 -0.0 -0.0 0.0013674072206259474 -0.0 0.0 -0.0 0.0012929574511988784" pbc="T T T"
Li       0.00000000       0.00000000       0.00000000       0.00000000       0.00000000       0.00000000
Mg       4.24787947       0.00000000       0.00000000       0.00000000       0.00000000       0.00000000
Mg       4.24787947       4.26906436       0.00000000       0.00000000       0.00000000       0.00000000
Mg       0.00000000       2.04852078       2.11495702       0.00000000      -0.07046746       0.00000000
Mg       0.00000000       6.48960793       2.11495702      -0.00000000       0.07046746       0.00000000
Mg       4.24787947       2.11061509       2.11495702       0.00000000       0.03762299      -0.00000000
Mg       4.24787947       6.42751362       2.11495702      -0.00000000      -0.03762299       0.00000000
Mg       2.07612382       0.00000000       2.11495702      -0.01983713       0.00000000      -0.00000000
Mg       2.13614729       4.26906436       2.11495702       0.05099130       0.00000000       0.00000000
Mg       6.41963512       0.00000000       2.11495702       0.01983713       0.00000000       0.00000000
Mg       6.35961165       4.26906436       2.11495702      -0.05099130       0.00000000      -0.00000000
Mg       2.10927529       2.07636396       0.00000000       0.03686515      -0.03197650      -0.00000000
Mg       2.10927529       6.46176475       0.00000000       0.03686515       0.03197650      -0.00000000
Mg       6.38648365       2.07636396       0.00000000      -0.03686515      -0.03197650       0.00000000
Mg       6.38648365       6.46176475       0.00000000      -0.03686515       0.03197650       0.00000000
Cr       0.00000000       4.26906436       0.00000000       0.00000000       0.00000000       0.00000000
O        2.17168582       0.00000000       0.00000000       0.01474567      -0.00000000      -0.00000000
O        2.05082770       4.26906436       0.00000000       0.07376507      -0.00000000       0.00000000
O        6.32407312       0.00000000       0.00000000      -0.01474567       0.00000000       0.00000000
O        6.44493124       4.26906436       0.00000000      -0.07376507       0.00000000       0.00000000
O        2.11751941       2.15098566       2.11495702      -0.01453738       0.00538087      -0.00000000
O        2.11751941       6.38714305       2.11495702      -0.01453738      -0.00538087       0.00000000
O        6.37823953       2.15098566       2.11495702       0.01453738       0.00538087       0.00000000
O        6.37823953       6.38714305       2.11495702       0.01453738      -0.00538087       0.00000000
O        0.00000000       0.00000000       2.11495702       0.00000000       0.00000000       0.00000000
O        0.00000000       4.26906436       2.11495702       0.00000000       0.00000000       0.00000000
O        4.24787947       0.00000000       2.11495702       0.00000000       0.00000000       0.00000000
O        4.24787947       4.26906436       2.11495702       0.00000000       0.00000000       0.00000000
O        0.00000000       2.27027442       0.00000000       0.00000000      -0.08829645       0.00000000
O        0.00000000       6.26785429       0.00000000      -0.00000000       0.08829645       0.00000000
O        4.24787947       2.17446432       0.00000000      -0.00000000      -0.00109342      -0.00000000
O        4.24787947       6.36366439       0.00000000      -0.00000000       0.00109342       0.00000000
32
Lattice="8.48704637 0.0 0.0 0.0 8.52927288 0.0 0.0 0.0 4.22598572" Properties=species:S:1:pos:R:3:forces:R:3 config_type=Default energy=-194.73893616 energy_corrected=-207.72993616000002 stress="-0.004740360851232314 -0.0 0.0 -0.0 -0.004794456366592364 -0.0 -0.0 -0.0 -0.004292422839478248" pbc="T T T"