12
Lattice="7.18880797 0.0 0.0 -3.59440398 6.22569032 0.0 0.0 0.0 6.75467063" Properties=species:S:1:pos:R:3:forces:R:3 config_type=Default energy=-63.87000587 energy_corrected=-63.87000587 stress="0.04344223826911556 -0.0 -0.0 -0.0 0.04344223826911556 -0.0 -0.0 -0.0 0.02801338617560734" pbc="T T T"
Al       3.59440402       4.35123887       1.68866766       0.00000000       0.77881183       0.00000000
Al      -1.97108146       5.28846463       5.06600297      -0.67447083       0.38940591       0.00000000
Al       1.97108140       5.28846463       5.06600297       0.67447083       0.38940591       0.00000000
Al       1.62332259       0.93722569       1.68866766      -0.67447083      -0.38940591       0.00000000
Al       5.56548545       0.93722569       1.68866766       0.67447083      -0.38940591       0.00000000
Al      -0.00000003       1.87445145       5.06600297       0.00000000      -0.77881183       0.00000000
Sc      -0.00000003       4.15046023       6.65577138       0.00000000       0.00000000       0.74415195
Sc       3.59440402       2.07523009       3.27843606       0.00000000       0.00000000       0.74415195
Sc      -0.00000003       4.15046023      -3.27843606       0.00000000       0.00000000      -0.74415195
Sc       3.59440402       2.07523009       0.09889925       0.00000000       0.00000000      -0.74415195
Ru       0.00000000       0.00000000       3.37733531       0.00000000       0.00000000       0.00000000
Ru       0.00000000       0.00000000       0.00000000       0.00000000       0.00000000       0.00000000
10
Lattice="6.15717092 -1.1e-07 -8e-08 3.07858573 5.33226647 -4e-08 3.07858573 1.77742212 5.02730904" Properties=species:S:1:pos:R:3:forces:R:3 config_type=Default energy=-46.96778267 energy_corrected=-49.73978267 stress="0.06760350630126984 2.1845281940591404e-09 1.541652754093165e-09 2.1845281940591404e-09 0.06760350859814519 -0.0 1.541652754093165e-09 -0.0 0.0676035083360018" pbc="T T T"
Li       3.07858560       1.77742212       1.25682723      -0.00000000       0.00000000       0.00000000
Li       9.23575679       5.33226636       3.77048169      -0.00000000       0.00000000       0.00000000
Al       0.00000000       0.00000000       0.00000000      -0.00000000       0.00000000       0.00000000
Cu       6.15717119       3.55484424       2.51365446      -0.00000000       0.00000000       0.00000000
F        4.46311785       4.53290644       1.13046570      -0.70375336       0.40631221      -0.57461221
F        7.85122453       4.53290638       1.13046565       0.70375336       0.40631219      -0.57461223
F        7.85122453       2.57678204       3.89684322       0.70375336      -0.40631221       0.57461221
F        6.15717104       1.59871990       1.13046568      -0.00000006      -0.81262440      -0.57461222
F        6.15717134       5.51096858       3.89684324       0.00000006       0.81262440       0.57461222
F        4.46311785       2.57678210       3.89684327      -0.70375336      -0.40631219       0.57461223
10
Lattice="7.23560831 -9e-08 -6e-08 3.6178045 6.26622071 -3e-08 3.6178045 2.08874021 5.90784953" Properties=species:S:1:pos:R:3:forces:R:3 config_type=Default energy=-27.78525672 energy_corrected=-31.46925672 stress="0.0006951566921778417 3.120754562941629e-11 1.8724527377649774e-11 3.120754562941629e-11 0.0006951567233853872 -0.0 1.8724527377649774e-11 -0.0 0.0006951567233853872" pbc="T T T"
Na       3.61780433       2.08874021       1.47696236      -0.00000000       0.00000000      -0.00000000
Na      10.85341298       6.26622062       4.43088708      -0.00000000       0.00000000      -0.00000000
Ag       7.23560866       4.17748041       2.95392472      -0.00000000       0.00000000      -0.00000000
Au       0.00000000       0.00000000       0.00000000      -0.00000000       0.00000000      -0.00000000
Cl       5.38533540       5.24573623       1.44318292       0.23581307      -0.13614675       0.19254057
Cl       9.08588191       5.24573618       1.44318289      -0.23581307      -0.13614674       0.19254057
Cl       9.08588191       3.10922460       4.46466652      -0.23581307       0.13614675      -0.19254057
Cl       7.23560848       2.04096883       1.44318290       0.00000002       0.27229349       0.19254057
Cl       7.23560883       6.31399200       4.46466654      -0.00000002      -0.27229349      -0.19254057
Cl       5.38533540       3.10922465       4.46466655       0.23581307       0.13614674      -0.19254057
16
Lattice="6.36254281 0.05418375 0.0 -3.13434691 5.4288475 0.0 0.0 0.0 10.26253736" Properties=species:S:1:pos:R:3:forces:R:3 config_type=Default energy=-33.00025945 energy_corrected=-33.00025945 stress="0.007320454092098559 -0.0009153475471809856 -0.0 -0.0009153475471809856 0.008377404716652322 -0.0 -0.0 -0.0 0.00785138427105427" pbc="T T T"
Mg       0.01638612       1.81907275       6.41408585       0.00559034       0.00322758       0.00000000
Mg      -1.55254742       4.53248031       6.41408585      -0.00323473      -0.00186757       0.00000000
Mg       3.20014530       1.83646764       1.28281717      -0.01618597      -0.03015775       0.00000000
Mg       3.19442938       1.84693359       6.41408585      -0.02601402       0.00434052       0.00000000
Mg       1.62333012       4.56759134       1.28281717      -0.03421037       0.00106142       0.00000000
Mg       1.62953594       4.55740823       6.41408585      -0.00924801      -0.02469906       0.00000000
Mg       1.58308431       0.92545088       3.81424822      -0.03437474       0.01269948      -0.14574283
Mg       1.58308431       0.92545088       9.01392348      -0.03437474       0.01269948       0.14574283
Mg       0.02582962       3.62269482       3.81424822      -0.00618929      -0.03611913      -0.14574283
Mg       0.02582962       3.62269482       9.01392348      -0.00618929      -0.03611913       0.14574283
Mg       4.79757357       0.96026792       3.83204264       0.06469486       0.03735159      -0.06250604
Mg       4.79757357       0.96026792       8.99612906       0.06469486       0.03735159       0.06250604
Mg       3.21936635       3.66832133       3.82944160       0.03107173       0.01793927      -0.08339333
Mg       3.21936635       3.66832133       8.99873010       0.03107173       0.01793927       0.08339333
Ti       0.00632592       1.81326449       1.28281717      -0.06744377      -0.03893867       0.00000000
Ga      -1.54374600       4.53756181       1.28281717       0.04034138       0.02329111       0.00000000
10
Lattice="0.0 3.974458 3.974458 3.974458 0.0 3.974458 3.974458 3.974458 0.0" Properties=species:S:1:pos:R:3:forces:R:3 config_type=Default energy=-48.26965924 energy_corrected=-51.04165924 stress="0.00045744848631859407 -0.0 -0.0 -0.0 0.00045744848631859407 -0.0 0.0 -0.0 0.00045744848631859407" pbc="T T T"
Li       5.96168700       5.96168700       5.96168700      -0.00000000      -0.00000000      -0.00000000
Li       1.98722900       1.98722900       1.98722900       0.00000000      -0.00000000      -0.00000000
Al       0.00000000       0.00000000       0.00000000       0.00000000      -0.00000000      -0.00000000
Cu       3.97445800       3.97445800       3.97445800      -0.00000000      -0.00000000      -0.00000000
F        1.81270260       3.97445800       3.97445800       0.00781414      -0.00000000      -0.00000000
F        3.97445800       3.97445800       1.81270260       0.00000000      -0.00000000       0.00781414
F        6.13621340       3.97445800       3.97445800      -0.00781414       0.00000000      -0.00000000
F        3.97445800       1.81270260       3.97445800       0.00000000       0.00781414      -0.00000000
F        3.97445800       6.13621340       3.97445800      -0.00000000      -0.00781414      -0.00000000
F        3.97445800       3.97445800       6.13621340       0.00000000      -0.00000000      -0.00781414
16
Lattice="6.32159566 0.02611463 0.0 -3.1381819 5.43548991 0.0 0.0 0.0 10.29788688" Properties=species:S:1:pos:R:3:forces:R:3 config_type=Default energy=-32.98295904 energy_corrected=-32.98295904 stress="-0.002317847228444591 -0.001968602386936041 -0.0 -0.001968602386936041 -4.4700745891697896e-05 -0.0 -0.0 -0.0 0.0021889987873177186" pbc="T T T"
Mg       0.00794791       1.81641504       6.43617930       0.00333727       0.00192677       0.00000000
Mg      -1.56229324       4.53349593       6.43617930      -0.00308059      -0.00177858       0.00000000
Mg       3.17057235       1.82489955       1.28723586       0.01118991      -0.04838503       0.00000000
Mg       3.16791115       1.83049338       6.43617930      -0.01883336       0.00071132       0.00000000
Mg       1.59660787       4.55108571       1.28723586      -0.03630772       0.03388326       0.00000000
Mg       1.60012170       4.54598408       6.43617930      -0.00880065      -0.01666583       0.00000000
Mg       1.57593473       0.91514041       3.84714163      -0.07109860       0.01954724      -0.19104947
Mg       1.57593473       0.91514041       9.02521697      -0.07109860       0.01954724       0.19104947
Mg       0.01140820       3.62497955       3.84714163      -0.01862089      -0.07134680      -0.19104947
Mg       0.01140820       3.62497955       9.02521697      -0.01862089      -0.07134680       0.19104947
Mg       4.75340488       0.93255295       3.85362580       0.09111603       0.05260586      -0.08285992
Mg       4.75340488       0.93255295       9.01873280       0.09111603       0.05260586       0.08285992
Mg       3.17919539       3.64734272       3.85523907       0.03398155       0.01961926      -0.11926719
Mg       3.17919539       3.64734272       9.01711953       0.03398155       0.01961926       0.11926719
Ti       0.00501904       1.81472406       1.28723586      -0.06279852      -0.03625674       0.00000000
Ga      -1.55846316       4.53570726       1.28723586       0.04453746       0.02571371       0.00000000
12
Lattice="5.30473367 0.0 0.0 -2.65236683 4.59403412 0.0 0.0 0.0 8.55627983" Properties=species:S:1:pos:R:3:forces:R:3 config_type=Default energy=-74.1586474 energy_corrected=-74.1586474 stress="-1.2394201576905198e-06 -0.0 -0.0 -0.0 -1.2394201576905198e-06 -0.0 -0.0 -0.0 0.00013967329013218367" pbc="T T T"
Al       2.65236686       3.07685467       2.13906996       0.00000000       0.00023625       0.00000000
Al      -1.33845093       3.83544442       6.41720987      -0.00020460       0.00011812       0.00000000
Al       1.33845088       3.83544442       6.41720987       0.00020460       0.00011812       0.00000000
Al       1.31391596       0.75858970       2.13906996      -0.00020460      -0.00011812       0.00000000
Al       3.99081777       0.75858970       2.13906996       0.00020460      -0.00011812       0.00000000
Al      -0.00000002       1.51717945       6.41720987       0.00000000      -0.00023625       0.00000000
Sc      -0.00000002       3.06268943       0.47223400       0.00000000       0.00000000      -0.00099084
Sc       2.65236686       1.53134469       4.75037392       0.00000000       0.00000000      -0.00099084
Sc      -0.00000002       3.06268943       3.80590591       0.00000000       0.00000000       0.00099084
Sc       2.65236686       1.53134469       8.08404583       0.00000000       0.00000000       0.00099084
Ru       0.00000000       0.00000000       4.27813991       0.00000000       0.00000000       0.00000000
Ru       0.00000000       0.00000000       0.00000000       0.00000000       0.00000000       0.00000000
12
Lattice="5.31117495 0.0 0.0 -2.65558748 4.59961243 0.0 0.0 0.0 8.57734958" Properties=species:S:1:pos:R:3:forces:R:3 config_type=Default energy=-74.15523008 energy_corrected=-74.15523008 stress="0.0032682706712980148 -0.0 -0.0 -0.0 0.0032682706712980148 -0.0 -0.0 -0.0 0.0044672197541031555" pbc="T T T"
Al       2.65558747       3.08187878       2.14433739       0.00000000      -0.01935118       0.00000000
Al      -1.34119158       3.84074560       6.43301218       0.01675861      -0.00967559       0.00000000
Al       1.34119157       3.84074560       6.43301218      -0.01675861      -0.00967559       0.00000000
Al       1.31439590       0.75886683       2.14433739       0.01675861       0.00967559       0.00000000
Al       3.99677905       0.75886683       2.14433739      -0.01675861       0.00967559       0.00000000
Al      -0.00000000       1.51773365       6.43301218       0.00000000       0.01935118       0.00000000
Sc      -0.00000003       3.06640830       0.47812986       0.00000000       0.00000000      -0.04070005
Sc       2.65558750       1.53320413       4.76680465       0.00000000       0.00000000      -0.04070005
Sc      -0.00000003       3.06640830      -4.76680465       0.00000000       0.00000000       0.04070005
Sc       2.65558750       1.53320413      -0.47812986       0.00000000       0.00000000       0.04070005
Ru       0.00000000       0.00000000       4.28867479       0.00000000       0.00000000       0.00000000
Ru       0.00000000       0.00000000       0.00000000       0.00000000       0.00000000       0.00000000
12
Lattice="5.28190903 0.0 0.0 -2.64095452 4.5742674 0.0 0.0 0.0 8.60871522" Properties=species:S:1:pos:R:3:forces:R:3 config_type=Default energy=-74.12661516 energy_corrected=-74.12661516 stress="-0.005611813144240333 -0.0 -0.0 -0.0 -0.005611813144240333 -0.0 -0.0 -0.0 0.003316416468083817" pbc="T T T"
Al       2.64095454       3.07903449       2.15217881       0.00000000      -0.37031791       0.00000000
Al      -1.34604487       3.82665097       6.45653642       0.32070471      -0.18515895       0.00000000
Al       1.34604481       3.82665097       6.45653642      -0.32070471      -0.18515895       0.00000000
Al       1.29490970       0.74761643       2.15217881       0.32070471       0.18515895       0.00000000
Al       3.98699938       0.74761643       2.15217881      -0.32070471       0.18515895       0.00000000
Al      -0.00000003       1.49523291       6.45653642       0.00000000       0.37031791       0.00000000
Sc      -0.00000003       3.04951162       0.49625739       0.00000000       0.00000000      -0.15079561
Sc       2.64095454       1.52475578       4.80061500       0.00000000       0.00000000      -0.15079561
Sc      -0.00000003       3.04951162      -4.80061500       0.00000000       0.00000000       0.15079561
Sc       2.64095454       1.52475578      -0.49625739       0.00000000       0.00000000       0.15079561
Ru       0.00000000       0.00000000       4.30435761       0.00000000       0.00000000       0.00000000
Ru       0.00000000       0.00000000       0.00000000       0.00000000       0.00000000       0.00000000
10
Lattice="6.37942538 -1.5e-07 -1e-07 3.18971294 5.52474443 -5e-08 3.18971294 1.84158143 5.20877901" Properties=species:S:1:pos:R:3:forces:R:3 config_type=Default energy=-21.1614074 energy_corrected=-24.845407400000003 stress="-0.22036684002023854 -4.849652590811292e-09 -3.432830019235792e-09 -4.849652590811292e-09 -0.22036684512579305 0.0 -3.432830019235792e-09 0.0 -0.22036684453909117" pbc="T T T"
Na       3.18971282       1.84158143       1.30219471       0.00000000      -0.00000000       0.00000000
Na       9.56913845       5.52474428       3.90658414       0.00000000       0.00000000       0.00000000
Ag       6.37942563       3.68316285       2.60438943       0.00000000      -0.00000000       0.00000000
Au       0.00000000       0.00000000       0.00000000       0.00000000      -0.00000000       0.00000000
Cl       4.72789498       4.63667457       1.25592031       2.58699807      -1.49360411       2.11227506
Cl       8.03095628       4.63667449       1.25592026      -2.58699807      -1.49360399       2.11227514
Cl       8.03095628       2.72965114       3.95285855      -2.58699807       1.49360411      -2.11227506
Cl       6.37942550       1.77613950       1.25592029       0.00000020       2.98720810       2.11227510
Cl       6.37942576       5.59018621       3.95285857      -0.00000020      -2.98720810      -2.11227510
Cl       4.72789498       2.72965122       3.95285860       2.58699807       1.49360399      -2.11227514
16
Lattice="6.32278459 0.06323574 0.0 -3.10662854 5.3808379 0.0 0.0 0.0 10.18848553" Properties=species:S:1:pos:R:3:forces:R:3 config_type=Default energy=-33.03731903 energy_corrected=-33.03731903 stress="7.138474529911204e-05 0.0008425286029488917 -0.0 0.0008425286029488917 -0.0009014833890653163 -0.0 -0.0 -0.0 -0.0002629527884320505" pbc="T T T"
Mg       0.01986828       1.80508000       6.36780346       0.00514601       0.00297105       0.00000000
Mg      -1.53639164       4.49379824       6.36780346      -0.00842408      -0.00486364       0.00000000
Mg       3.17963712       1.82063712       1.27356069      -0.01562371      -0.00809354       0.00000000
Mg       3.17174567       1.83669910       6.36780346      -0.02195963       0.00472458       0.00000000
Mg       1.61322558       4.53374120       1.27356069      -0.01482106      -0.00948376       0.00000000
Mg       1.62318991       4.51887606       6.36780346      -0.00688820      -0.02137988       0.00000000
Mg       1.57209613       0.92234140       3.76440628      -0.00632977       0.01689176      -0.10012313
Mg       1.57209613       0.92234140       8.97120063      -0.00632977       0.01689176       0.10012313
Mg       0.03150186       3.59072867       3.76440628       0.01146381      -0.01392763      -0.10012313
Mg       0.03150186       3.59072867       8.97120063       0.01146381      -0.01392763       0.10012313
Mg       4.77776430       0.96483414       3.79641606       0.02265571       0.01308028      -0.02441603
Mg       4.77776430       0.96483414       8.93919086       0.02265571       0.01308028       0.02441603
Mg       3.21007487       3.64695362       3.78635360       0.02972486       0.01716165      -0.07770820
Mg       3.21007487       3.64695362       8.94925331       0.02972486       0.01716165       0.07770820
Ti      -0.00263328       1.79208876       1.27356069      -0.05379895      -0.03106083       0.00000000
Ga      -1.52226743       4.50195286       1.27356069       0.00134040       0.00077388       0.00000000
16
Lattice="6.34033713 0.03896184 0.0 -3.13642663 5.43244969 0.0 0.0 0.0 10.28170744" Properties=species:S:1:pos:R:3:forces:R:3 config_type=Default energy=-32.99376876 energy_corrected=-32.99376876 stress="0.005650848391158849 -0.0016011610559634002 -0.0 -0.0016011610559634002 0.007499708524020425 -0.0 -0.0 -0.0 0.008454410945802262" pbc="T T T"
Mg       0.01180967       1.81763126       6.42606715       0.00743414       0.00429210       0.00000000
Mg      -1.55783226       4.53303126       6.42606715      -0.00400718      -0.00231355       0.00000000
Mg       3.18410991       1.83019456       1.28521343      -0.00378178      -0.03881059       0.00000000
Mg       3.18005037       1.83801927       6.42606715      -0.02236065       0.00668592       0.00000000
Mg       1.60883989       4.55864198       1.28521343      -0.03550185       0.01613018       0.00000000
Mg       1.61358659       4.55121384       6.42606715      -0.00539015      -0.02270785       0.00000000
Mg       1.57921194       0.91986330       3.83207719      -0.05666127       0.01773532      -0.17160627
Mg       1.57921194       0.91986330       9.02005711      -0.05666127       0.01773532       0.17160627
Mg       0.01801459       3.62393614       3.83207719      -0.01297140      -0.05793775      -0.17160627
Mg       0.01801459       3.62393614       9.02005711      -0.01297140      -0.05793775       0.17160627
Mg       4.77360967       0.94523160       3.84374333       0.07963418       0.04597681      -0.07622212
Mg       4.77360967       0.94523160       9.00839097       0.07963418       0.04597681       0.07622212
Mg       3.19757748       3.65694218       3.84342583       0.03191697       0.01842727      -0.10263077
Mg       3.19757748       3.65694218       9.00870847       0.03191697       0.01842727       0.10263077
Ti       0.00562535       1.81406070       1.28521343      -0.06628110      -0.03826741       0.00000000
Ga      -1.55173276       4.53655288       1.28521343       0.04605162       0.02658792       0.00000000
12
Lattice="6.164349 0.0 0.0 0.0 6.164349 0.0 0.0 0.0 4.991205" Properties=species:S:1:pos:R:3:forces:R:3 config_type=Default energy=-108.47017736 energy_corrected=-108.47017736 stress="-0.012802615244602626 -0.0 -0.0 -0.0 -0.012802615244602626 -0.0 -0.0 0.0 -0.016080447271247564" pbc="T T T"
Nb       4.07110868       1.01260528       2.49560250       0.01128269      -0.10595322       0.00000000
Nb       2.09324032       5.15174372       2.49560250      -0.01128269       0.10595322       0.00000000
Nb       5.15174372       4.07110868       2.49560250       0.10595322       0.01128269      -0.00000000
Nb       1.01260528       2.09324032       2.49560250      -0.10595322      -0.01128269      -0.00000000
Nb       2.09324032       1.01260528       0.00000000      -0.01128269      -0.10595322      -0.00000000
Nb       4.07110868       5.15174372       0.00000000       0.01128269       0.10595322      -0.00000000
Nb       1.01260528       4.07110868       0.00000000      -0.10595322       0.01128269      -0.00000000
Nb       5.15174372       2.09324032       0.00000000       0.10595322      -0.01128269       0.00000000
Ni       0.00000000       0.00000000       1.24780125       0.00000000      -0.00000000       0.00000000
Ni       0.00000000       0.00000000       3.74340375      -0.00000000       0.00000000       0.00000000
P        3.08217450       3.08217450       1.24780125       0.00000000       0.00000000       0.00000000
P        3.08217450       3.08217450       3.74340375       0.00000000      -0.00000000       0.00000000
